
Host: login-phoenix-slurm-1.pace.gatech.edu

Timers On : Fri Aug 18 10:46:07 2023
Timers Off: Fri Aug 18 10:47:24 2023

Wall Time:       76.07 seconds

                                                       Time (seconds)
Module                                       User      System        Wall        Calls

--------------------------------------------------------------------------------------

**************************************************************************************

Host: login-phoenix-slurm-1.pace.gatech.edu

Timers On : Fri Aug 18 10:49:03 2023
Timers Off: Fri Aug 18 10:49:39 2023

Wall Time:       35.25 seconds

                                                       Time (seconds)
Module                                       User      System        Wall        Calls

--------------------------------------------------------------------------------------

**************************************************************************************

Host: login-phoenix-slurm-1.pace.gatech.edu

Timers On : Fri Aug 18 10:55:14 2023
Timers Off: Fri Aug 18 10:55:35 2023

Wall Time:       21.30 seconds

                                                       Time (seconds)
Module                                       User      System        Wall        Calls

--------------------------------------------------------------------------------------

**************************************************************************************

Host: login-phoenix-slurm-1.pace.gatech.edu

Timers On : Fri Aug 18 10:56:50 2023
Timers Off: Fri Aug 18 11:01:30 2023

Wall Time:      279.92 seconds

                                                       Time (seconds)
Module                                       User      System        Wall        Calls

--------------------------------------------------------------------------------------

**************************************************************************************

Host: login-phoenix-slurm-1.pace.gatech.edu

Timers On : Fri Aug 18 11:39:19 2023
Timers Off: Fri Aug 18 11:41:33 2023

Wall Time:      134.02 seconds

                                                       Time (seconds)
Module                                       User      System        Wall        Calls

--------------------------------------------------------------------------------------

**************************************************************************************

Host: login-phoenix-slurm-1.pace.gatech.edu

Timers On : Fri Aug 18 11:46:37 2023
Timers Off: Fri Aug 18 11:47:15 2023

Wall Time:       38.45 seconds

                                                       Time (seconds)
Module                                       User      System        Wall        Calls

--------------------------------------------------------------------------------------

**************************************************************************************

Host: login-phoenix-slurm-1.pace.gatech.edu

Timers On : Fri Aug 18 11:51:13 2023
Timers Off: Fri Aug 18 11:51:14 2023

Wall Time:        1.23 seconds

                                                       Time (seconds)
Module                                       User      System        Wall        Calls

--------------------------------------------------------------------------------------

**************************************************************************************

Host: login-phoenix-slurm-1.pace.gatech.edu

Timers On : Fri Aug 18 11:53:00 2023
Timers Off: Fri Aug 18 11:53:01 2023

Wall Time:        1.31 seconds

                                                       Time (seconds)
Module                                       User      System        Wall        Calls

--------------------------------------------------------------------------------------

**************************************************************************************

Host: login-phoenix-slurm-1.pace.gatech.edu

Timers On : Fri Aug 18 11:53:50 2023
Timers Off: Fri Aug 18 11:53:51 2023

Wall Time:        1.33 seconds

                                                       Time (seconds)
Module                                       User      System        Wall        Calls

--------------------------------------------------------------------------------------

**************************************************************************************

Host: login-phoenix-slurm-1.pace.gatech.edu

Timers On : Fri Aug 18 12:13:35 2023
Timers Off: Fri Aug 18 12:13:51 2023

Wall Time:       16.00 seconds

                                                       Time (seconds)
Module                                       User      System        Wall        Calls

--------------------------------------------------------------------------------------

**************************************************************************************

Host: login-phoenix-slurm-1.pace.gatech.edu

Timers On : Fri Aug 18 12:14:16 2023
Timers Off: Fri Aug 18 12:14:18 2023

Wall Time:        1.21 seconds

                                                       Time (seconds)
Module                                       User      System        Wall        Calls

--------------------------------------------------------------------------------------

**************************************************************************************

Host: login-phoenix-slurm-1.pace.gatech.edu

Timers On : Fri Aug 18 12:14:56 2023
Timers Off: Fri Aug 18 12:14:58 2023

Wall Time:        1.26 seconds

                                                       Time (seconds)
Module                                       User      System        Wall        Calls

--------------------------------------------------------------------------------------

**************************************************************************************

Host: login-phoenix-slurm-1.pace.gatech.edu

Timers On : Fri Aug 18 13:38:13 2023
Timers Off: Fri Aug 18 13:38:14 2023

Wall Time:        1.51 seconds

                                                       Time (seconds)
Module                                       User      System        Wall        Calls

--------------------------------------------------------------------------------------

**************************************************************************************

Host: login-phoenix-slurm-4.pace.gatech.edu

Timers On : Fri Aug 25 18:02:04 2023
Timers Off: Fri Aug 25 18:12:07 2023

Wall Time:      602.42 seconds

                                                       Time (seconds)
Module                                       User      System        Wall        Calls

--------------------------------------------------------------------------------------

**************************************************************************************
