
Host: login-phoenix-slurm-4.pace.gatech.edu

Timers On : Wed Sep  6 12:50:20 2023
Timers Off: Wed Sep  6 12:50:23 2023

Wall Time:        3.10 seconds

                                                       Time (seconds)
Module                                       User      System        Wall        Calls

--------------------------------------------------------------------------------------

**************************************************************************************
